% Model:              exercise2.mph
% Version:            COMSOL 5.3.1.348
% Date:               Jul 5 2019, 11:17
% Dimension:          2
% Nodes:              222
% Expressions:        1
% Description:        Dependent variable u
% Length unit:        m
% X                       Y                        u (1)
0                         0.001999999999999999     3.9999999999999964E-6
0                         0                        0
0.001293217808384206      0.0013528469508030318    0.007385031654479101
0.002000000000000011      0                        4.000000000000044E-6
0                         0.003999999999999998     1.5999999999999986E-5
0.001476099684672969      0.0030092193829283835    0.018547458622020938
0.0040000000000000105     0                        1.6000000000000084E-5
0.00298998935724805       0.0017550153710867765    0.02236198166196452
0                         0.005999999999999997     3.599999999999996E-5
0.001546288226664828      0.004965955529180588     0.031322897150027645
0.00600000000000001       0                        3.6000000000000116E-5
0.0050496454613457855     0.001605160930757768     0.03556687572398074
0.008000000000000009      0                        6.400000000000015E-5
0.007033238589104674      0.001614704592519895     0.05212486287326166
0.010000000000000009      0                        1.000000000000002E-4
0.009014776425485597      0.0016264852571388573    0.0720091013947622
0.012000000000000007      0                        1.4400000000000017E-4
0.011000609515518433      0.001612949503148866     0.09627433352000013
0                         0.007999999999999995     6.399999999999992E-5
0.0015878075380730047     0.006966095940758154     0.04367086587727587
0.014000000000000004      0                        1.960000000000001E-4
0.012994008710903025      0.0016035907694919881    0.1309636726250303
0.016000000000000004      0                        2.560000000000001E-4
0.014990889731499174      0.0015491149087300512    0.18273363036535403
0                         0.009999999999999993     9.999999999999988E-5
0.0015784465126433653     0.008982214482677638     0.05389034093448325
0.018000000000000002      0                        3.2400000000000007E-4
0.016977047742990085      0.001487291634729002     0.2862056986097237
0.02                      0                        0.5002
0.018642161036906083      0.0013060866226182219    0.48608466192040467
0                         0.01199999999999999      1.4399999999999976E-4
0.0015697644555259151     0.01098903430005027      0.0631076461599522
0                         0.013999999999999988     1.959999999999997E-4
0.0015646342542443867     0.012987830742249521     0.07190414396376486
0.02                      0.0020000000000000096    1
0                         0.015999999999999986     2.5599999999999955E-4
0.0015619901541166362     0.014983448394633963     0.08094987887147963
0.02                      0.004000000000000009     1
0.018233757441540318      0.0030431414783620983    0.6600888934861774
0                         0.01799999999999998      3.239999999999993E-4
0.001563415579945044      0.016984369464721046     0.09135806496260922
0.02                      0.006000000000000009     1
0.01837716209038009       0.005114050327786608     0.7963147488413566
0                         0.01999999999999998      3.9999999999999915E-4
0.001585408206671401      0.01899250610283417      0.10579270977750906
0                         0.021999999999999974     4.839999999999989E-4
0.001626630065972492      0.02103207417899916      0.12769604356393163
0.02                      0.008000000000000007     1
0.0183667671293455        0.0070253611666809546    0.8437226607830431
0                         0.02399999999999997      5.759999999999985E-4
0.0016357960167265111     0.02301188177673903      0.15769915704962537
0                         0.025999999999999968     6.759999999999983E-4
0.0015637068325534819     0.024874330536198697     0.19683675821320748
0.02                      0.010000000000000007     1
0.018383604944553787      0.009007503950482477     0.873939423503021
0                         0.027999999999999962     7.839999999999979E-4
0.0018140728308098048     0.02698705656544061      0.35072169110725004
0                         0.03                     0.50045
0.0013738993075372986     0.028708418577207906     0.5218647692136683
0.02                      0.012000000000000007     1
0.01840382079350449       0.010999598404987208     0.8937831451146209
0.001999999999999999      0.03                     1
0.02                      0.014000000000000007     1
0.018414549367068874      0.012986044866792288     0.9074832253320156
0.003999999999999998      0.03                     1
0.0030554237068766894     0.028555036320598977     0.7239318135249498
0.02                      0.016000000000000007     1
0.018420518044919173      0.014982815203773528     0.9182202994266236
0.0059999999999999975     0.03                     1
0.004956842364311226      0.028418564632079066     0.8119554306021314
0.02                      0.018000000000000006     1
0.018422094969146707      0.016983201466267115     0.9275443434146818
0.007999999999999997      0.03                     1
0.006956058928565755      0.02834175013879587      0.863834859574938
0.02                      0.020000000000000004     1
0.018420018260581223      0.018984734114051917     0.9365071650232942
0.009999999999999995      0.03                     1
0.008956852496838055      0.02832827447801533      0.8998304797174806
0.02                      0.022000000000000006     1
0.018416392211395214      0.020986742522982646     0.9458896891607095
0.011999999999999993      0.03                     1
0.010946019284995265      0.02833248330379534      0.9258892855463025
0.02                      0.024000000000000004     1
0.01841341696574208       0.022989074024824144     0.956197678792087
0.01399999999999999       0.03                     1
0.01291515603565783       0.0283460412772725       0.9462433106430043
0.02                      0.026000000000000002     1
0.018438256930181307      0.024986725083970086     0.9681368446479958
0.015999999999999986      0.03                     1
0.014848391542390503      0.028353029614264502     0.9627709876929472
0.02                      0.028                    1
0.018494427477035263      0.02696352150058608      0.9809455027834223
0.017999999999999985      0.03                     1
0.01692041118826297       0.028190518740163747     0.976277529219657
0.02                      0.03                     1
0.018686455106474556      0.028622891779666124     0.9923790850832892
0.003043359525869903      0.003963448679647407     0.050340531828898964
0.00445979585130179       0.0030698999905396625    0.058709797622995316
0.0031876765295689585     0.005946268055346793     0.07681544402989125
0.00611947952794008       0.003234635206613457     0.08723865629123924
0.004986906080717691      0.004918740631675725     0.1031871480987808
0.008046586102481854      0.0032743519629342735    0.12201376295637366
0.01001283957651353       0.003260133892866614     0.16288247436909672
0.011985992781183938      0.0031900419347126044    0.21275163213115086
0.0031665045554334077     0.007961615376775658     0.09829144100482388
0.004775239197916782      0.006922159656804404     0.1333551162901605
0.007098919421308556      0.004946826730942187     0.15342974817759406
0.006223872511117778      0.006347946101836166     0.1645320747622314
0.009033110982643066      0.004979652445276748     0.2069517236566267
0.013993838678180699      0.0031835040764559177    0.28987924540500837
0.0159954783341421        0.0030254068325111507    0.39961534285128547
0.010999513323429954      0.00488038353402562      0.267134360742068
0.012946348821781882      0.004744702245002098     0.3411468497598487
0.003144157499695193      0.009982309511903606     0.11735167779065363
0.0047257000547031415     0.008970644613163348     0.1632941138655255
0.006305922222100953      0.00801882290048614      0.20236995848049807
0.007978089812379468      0.006870008152573145     0.23258232703805384
0.010063613795289543      0.006646980707394421     0.30145093441176624
0.016891826523402688      0.004494698802933605     0.6006459907658723
0.015037169776957904      0.004992204799909858     0.47646092045595434
0.011970876556575676      0.006487953448721047     0.3771242440348255
0.013615975117014525      0.006278875120513473     0.45339598115374463
0.0031278979689900285     0.011994475412738077     0.13481310335017258
0.004695455041462801      0.011000006788292525     0.18991072368152315
0.006261630226839468      0.01002709338508851      0.2383197086594607
0.007871001529649074      0.008975085493451267     0.2809635123005791
0.009319254892841963      0.008209647189733845     0.3198737036232448
0.011081016430976047      0.008454393535851276     0.40405670478587424
0.003119090787617906      0.013997668097004264     0.1519115026280383
0.016742931423137507      0.00613199603500518      0.6695899225547498
0.015075439599710078      0.007088508713953015     0.5790340127751694
0.01324372035455348       0.008129818363938375     0.503805137942146
0.012303908843639822      0.009573821240170711     0.49673768131343243
0.004671565126709967      0.013021086521932602     0.2144917837925777
0.00622967427292261       0.012056485780653069     0.2707580475653295
0.007821186934611915      0.01108149266477747      0.3231793076130167
0.009602552895915677      0.010101768059399123     0.3806069317498322
0.01121787000776151       0.010171474765274862     0.45788561505818326
0.0031240729539562593     0.015996002751915053     0.17062904325890674
0.004660186670826274      0.015020633096513447     0.2391490250704056
0.01673754502477788       0.008033248433291035     0.7298412238558637
0.015075295901819179      0.008964909531060168     0.6388955606354986
0.013650561600197807      0.010065855978926471     0.582291398754955
0.012329048147867781      0.01104681702981358      0.534811126385985
0.006195949361306064      0.01406202678701339      0.30056096411762606
0.007731958257079054      0.013148446716542339     0.3575835977419724
0.009230304425265607      0.012180076553530511     0.4088045611213143
0.010772823720408223      0.01168057396113963      0.47144100325712396
0.0031588177909503946     0.017998078434617062     0.19437355440723314
0.004677408973020339      0.017007717292278908     0.26743999795075896
0.006171006796121333      0.016047486755902413     0.33096926308494784
0.01678225676694599       0.009983272590254225     0.7733267822062199
0.015259298978255446      0.010955788397092896     0.6951028817620098
0.013760858053519872      0.011957667185861677     0.6299584643661217
0.012271365377594769      0.01283080810431947      0.5696422424071396
0.007691620550652434      0.0151513567286347       0.39119404756880233
0.00922286957991335       0.014359833144507226     0.4505900138604963
0.010743276037132763      0.013592840746089485     0.5091255605793812
0.0076073801600183314     0.017045112170456473     0.4220662348345758
0.003246393662236339      0.02001973060992074      0.22898876751614264
0.0047546230357366406     0.018995253116391834     0.3050859199363118
0.006193495060904557      0.017998074460517564     0.3669912977582777
0.0034501743993875637     0.022159067494355863     0.2898332279395574
0.016824777005611455      0.011969139829111875     0.8045468448156748
0.0152921085815831        0.0129473453671106       0.730493503029226
0.01377256899881892       0.01389744108389312      0.6654885439890221
0.012251712678793408      0.014809180676083965     0.6055753670675399
0.009195839643254053      0.016328919322209326     0.48663927524710443
0.010744218566096187      0.015757358800036977     0.5502786577184162
0.008843514561012187      0.01792915019992455      0.5017267813385771
0.007753996418844548      0.018786226694952456     0.4659089956943951
0.00490274374160987       0.0209432917560408       0.35760062649170693
0.006539753239660923      0.020098526404637333     0.4327552010441793
0.005071133691520847      0.022409110099417165     0.41285262321043914
0.0031742648024455297     0.024005818450880498     0.329099871657946
0.004483264703784293      0.023440730821042706     0.4111627807696731
0.003066349851284691      0.025492866810320862     0.3947089389581094
0.01684843855055365       0.01396455899407163      0.827764377016611
0.015303130790496835      0.014937080331633988     0.7587000768809875
0.013765551227019598      0.01590117249308638      0.6972575407339175
0.012213295866098213      0.016875462829078352     0.6405243393319607
0.010515552705956933      0.017925587033926625     0.5817072400384838
0.009269398959859548      0.019451928498625624     0.5566507688866295
0.00807042713593095       0.020194572299994804     0.5164838210743038
0.006322070051625987      0.021915324724002542     0.4733124824286175
0.007593071032909246      0.021314075658108472     0.5237536723136336
0.005978454054557977      0.023595370249410275     0.517488155496281
0.004739594167904301      0.025030625378180547     0.5093858509992204
0.00392228507395134       0.02686807615646764      0.5839477871588534
0.01685490883521402       0.015963936803070275     0.8467095179940071
0.015302455165533892      0.016946099207677343     0.784119655038764
0.01375560868735612       0.017941224431077797     0.7287653005826881
0.012210433991389382      0.018978864258037527     0.6795972941860738
0.010736746866565715      0.020027088219959185     0.6377674237459378
0.00919591602838049       0.021322104243650133     0.6024433876048688
0.00783717931326709       0.023039854482699164     0.5953156677158867
0.006908684385117394      0.025022440387544254     0.6393794681856101
0.005901393473792496      0.026724296877124937     0.6982501767310675
0.016853812127555455      0.017969155434084786     0.8642610008086699
0.015295139433465223      0.01896320537521826      0.8094066376233969
0.013746776440630425      0.019982542423368933     0.7623723686615879
0.012268386921224807      0.021095280123675703     0.7263112812647022
0.010835411994268154      0.02176866431255401      0.6860480508010275
0.009949095719930148      0.023196217805698346     0.69391013713802
0.008909331859678958      0.024916388882002895     0.7205911059295326
0.007924895922904964      0.026664324569682263     0.7758888162710176
0.01684593389292744       0.01997406132342226      0.8820180435995847
0.015272384493309886      0.020966197482553198     0.835885054583764
0.01369011006995574       0.02195049424381454      0.7970454414332878
0.012022388601531611      0.023089448366166686     0.7665136096624813
0.01091627884805547       0.02492672083281669      0.7883573129268245
0.009919856968798687      0.026648775213576628     0.8314640433661458
0.016828860638631506      0.021975645932966772     0.9010348743013984
0.015227486484248983      0.022951235596528435     0.8647871462609392
0.01370847562277731       0.023587127986449963     0.8321975420446815
0.01281285632536997       0.025037496386816464     0.8440560041794251
0.011884250208677026      0.026671808853907613     0.87489636124596
0.01680113711765898       0.0239872771227277       0.9222314718643859
0.014977360049857232      0.02503998869836028      0.8953319373336796
0.013812547707105641      0.026718758147677674     0.9105517800194426
0.016921441637292763      0.025980993399716507     0.948451622745761
0.015452069969902853      0.026857804217627283     0.938767010354103
